<?xml version="1.0" encoding="UTF-8"?>

<!-- generated on 10/14/20 11:33:39 by Eclipse SUMO Version 1.6.0
<configuration xmlns:xsi="http://www.w3.org/2001/XMLSchema-instance" xsi:noNamespaceSchemaLocation="http://sumo.dlr.de/xsd/sumoConfiguration.xsd">

    <input>
        <net-file value="osm.net.xml"/>
        <route-files value="osm.passenger.trips.xml"/>
        <additional-files value="osm.poly.xml"/>
    </input>

    <output>
        <fcd-output value="fcd.xml"/>
        <queue-output value="queue.xml"/>
    </output>

    <processing>
        <ignore-route-errors value="true"/>
        <collision.action value="warn"/>
        <time-to-teleport value="-1"/>
    </processing>

    <routing>
        <device.rerouting.adaptation-steps value="180"/>
    </routing>

    <report>
        <verbose value="true"/>
        <error-log value="log.txt"/>
        <duration-log.statistics value="true"/>
        <no-step-log value="true"/>
    </report>

    <gui_only>
        <gui-settings-file value="osm.view.xml"/>
    </gui_only>

</configuration>
-->

<queue-export xmlns:xsi="http://www.w3.org/2001/XMLSchema-instance" xsi:noNamespaceSchemaLocation="http://sumo.dlr.de/xsd/queue_file.xsd">
    <data timestep="0.00">
        <lanes>
            <lane id="5327657#24_0" queueing_time="0.00" queueing_length="0.00" queueing_length_experimental="5.00"/>
        </lanes>
    </data>
    <data timestep="1.00">
        <lanes>
            <lane id=":5728202172_0_0" queueing_time="0.00" queueing_length="0.00" queueing_length_experimental="8.74"/>
        </lanes>
    </data>
    <data timestep="2.00">
        <lanes/>
    </data>
    <data timestep="3.00">
        <lanes/>
    </data>
    <data timestep="4.00">
        <lanes/>
    </data>
    <data timestep="5.00">
        <lanes>
            <lane id="5335686#3_0" queueing_time="0.00" queueing_length="0.00" queueing_length_experimental="5.00"/>
        </lanes>
    </data>
    <data timestep="6.00">
        <lanes/>
    </data>
    <data timestep="7.00">
        <lanes/>
    </data>
    <data timestep="8.00">
        <lanes/>
    </data>
    <data timestep="9.00">
        <lanes/>
    </data>
    <data timestep="10.00">
        <lanes/>
    </data>
    <data timestep="11.00">
        <lanes>
            <lane id="-5338043#6_0" queueing_time="0.00" queueing_length="0.00" queueing_length_experimental="14.34"/>
        </lanes>
    </data>
    <data timestep="12.00">
        <lanes/>
    </data>
    <data timestep="13.00">
        <lanes/>
    </data>
    <data timestep="14.00">
        <lanes>
            <lane id="5328522#1_0" queueing_time="0.00" queueing_length="0.00" queueing_length_experimental="10.11"/>
            <lane id="5335686#4_0" queueing_time="0.00" queueing_length="0.00" queueing_length_experimental="6.00"/>
        </lanes>
    </data>
    <data timestep="15.00">
        <lanes>
            <lane id="5335686#4_0" queueing_time="1.00" queueing_length="6.00" queueing_length_experimental="6.00"/>
        </lanes>
    </data>
    <data timestep="16.00">
        <lanes>
            <lane id="-5333529#0_0" queueing_time="0.00" queueing_length="0.00" queueing_length_experimental="8.93"/>
            <lane id="5335686#4_0" queueing_time="2.00" queueing_length="6.00" queueing_length_experimental="6.00"/>
        </lanes>
    </data>
    <data timestep="17.00">
        <lanes>
            <lane id="5335686#4_0" queueing_time="3.00" queueing_length="6.00" queueing_length_experimental="6.00"/>
        </lanes>
    </data>
    <data timestep="18.00">
        <lanes>
            <lane id="5335686#4_0" queueing_time="4.00" queueing_length="6.00" queueing_length_experimental="6.00"/>
            <lane id="5339888#7_0" queueing_time="0.00" queueing_length="0.00" queueing_length_experimental="9.71"/>
        </lanes>
    </data>
    <data timestep="19.00">
        <lanes>
            <lane id="5335686#4_0" queueing_time="5.00" queueing_length="6.00" queueing_length_experimental="6.00"/>
        </lanes>
    </data>
    <data timestep="20.00">
        <lanes>
            <lane id="5335686#4_0" queueing_time="6.00" queueing_length="6.00" queueing_length_experimental="6.00"/>
        </lanes>
    </data>
    <data timestep="21.00">
        <lanes>
            <lane id="5335686#4_0" queueing_time="7.00" queueing_length="6.00" queueing_length_experimental="6.00"/>
        </lanes>
    </data>
    <data timestep="22.00">
        <lanes>
            <lane id="-5343684#2_1" queueing_time="0.00" queueing_length="0.00" queueing_length_experimental="12.53"/>
            <lane id="5335686#4_0" queueing_time="8.00" queueing_length="6.00" queueing_length_experimental="6.00"/>
        </lanes>
    </data>
    <data timestep="23.00">
        <lanes>
            <lane id="5335686#4_0" queueing_time="9.00" queueing_length="6.00" queueing_length_experimental="6.00"/>
        </lanes>
    </data>
    <data timestep="24.00">
        <lanes>
            <lane id="5335686#4_0" queueing_time="10.00" queueing_length="6.00" queueing_length_experimental="6.00"/>
            <lane id="655147070#4_1" queueing_time="0.00" queueing_length="0.00" queueing_length_experimental="6.08"/>
        </lanes>
    </data>
    <data timestep="25.00">
        <lanes>
            <lane id="5335686#4_0" queueing_time="11.00" queueing_length="6.00" queueing_length_experimental="6.00"/>
            <lane id="655147070#4_1" queueing_time="1.00" queueing_length="6.00" queueing_length_experimental="6.00"/>
        </lanes>
    </data>
    <data timestep="26.00">
        <lanes>
            <lane id="5335686#4_0" queueing_time="12.00" queueing_length="6.00" queueing_length_experimental="6.00"/>
            <lane id="655147070#4_1" queueing_time="2.00" queueing_length="6.00" queueing_length_experimental="6.00"/>
        </lanes>
    </data>
    <data timestep="27.00">
        <lanes>
            <lane id="5335686#4_0" queueing_time="13.00" queueing_length="6.00" queueing_length_experimental="6.00"/>
            <lane id="655147070#4_1" queueing_time="3.00" queueing_length="6.00" queueing_length_experimental="6.00"/>
        </lanes>
    </data>
    <data timestep="28.00">
        <lanes>
            <lane id="5335686#4_0" queueing_time="14.00" queueing_length="6.00" queueing_length_experimental="6.00"/>
            <lane id="655147070#4_1" queueing_time="4.00" queueing_length="6.00" queueing_length_experimental="6.00"/>
        </lanes>
    </data>
    <data timestep="29.00">
        <lanes>
            <lane id="5335686#4_0" queueing_time="15.00" queueing_length="6.00" queueing_length_experimental="6.00"/>
            <lane id="5343684#2_1" queueing_time="0.00" queueing_length="0.00" queueing_length_experimental="6.33"/>
            <lane id="655147070#4_1" queueing_time="5.00" queueing_length="6.00" queueing_length_experimental="6.00"/>
        </lanes>
    </data>
    <data timestep="30.00">
        <lanes>
            <lane id="5335686#4_0" queueing_time="16.00" queueing_length="6.00" queueing_length_experimental="6.00"/>
            <lane id="5343684#2_1" queueing_time="0.00" queueing_length="0.00" queueing_length_experimental="6.05"/>
            <lane id="655147070#4_1" queueing_time="6.00" queueing_length="6.00" queueing_length_experimental="6.00"/>
        </lanes>
    </data>
    <data timestep="31.00">
        <lanes>
            <lane id="237597684#3_1" queueing_time="0.00" queueing_length="0.00" queueing_length_experimental="6.16"/>
            <lane id="5335686#4_0" queueing_time="17.00" queueing_length="6.00" queueing_length_experimental="6.00"/>
            <lane id="5343684#2_0" queueing_time="1.00" queueing_length="6.01" queueing_length_experimental="6.01"/>
            <lane id="5343684#2_1" queueing_time="0.00" queueing_length="0.00" queueing_length_experimental="12.53"/>
            <lane id="655147070#4_1" queueing_time="7.00" queueing_length="6.00" queueing_length_experimental="6.00"/>
        </lanes>
    </data>
    <data timestep="32.00">
        <lanes>
            <lane id="237597684#3_1" queueing_time="0.00" queueing_length="0.00" queueing_length_experimental="6.05"/>
            <lane id="5335686#4_0" queueing_time="18.00" queueing_length="6.00" queueing_length_experimental="6.00"/>
            <lane id="5343684#2_0" queueing_time="2.00" queueing_length="6.00" queueing_length_experimental="6.00"/>
        </lanes>
    </data>
    <data timestep="33.00">
        <lanes>
            <lane id="237597684#3_1" queueing_time="1.00" queueing_length="6.02" queueing_length_experimental="6.02"/>
            <lane id="5335686#4_0" queueing_time="19.00" queueing_length="6.00" queueing_length_experimental="6.00"/>
            <lane id="5343684#2_0" queueing_time="3.00" queueing_length="6.00" queueing_length_experimental="6.00"/>
        </lanes>
    </data>
    <data timestep="34.00">
        <lanes>
            <lane id="237597684#3_1" queueing_time="2.00" queueing_length="6.00" queueing_length_experimental="6.00"/>
            <lane id="5335686#4_0" queueing_time="20.00" queueing_length="6.00" queueing_length_experimental="6.00"/>
        </lanes>
    </data>
    <data timestep="35.00">
        <lanes/>
    </data>
    <data timestep="36.00">
        <lanes/>
    </data>
    <data timestep="37.00">
        <lanes/>
    </data>
    <data timestep="38.00">
        <lanes/>
    </data>
    <data timestep="39.00">
        <lanes>
            <lane id="5342617#14_0" queueing_time="0.00" queueing_length="0.00" queueing_length_experimental="6.23"/>
        </lanes>
    </data>
    <data timestep="40.00">
        <lanes>
            <lane id="5342617#14_0" queueing_time="0.00" queueing_length="0.00" queueing_length_experimental="6.02"/>
        </lanes>
    </data>
    <data timestep="41.00">
        <lanes>
            <lane id="5342617#14_0" queueing_time="1.00" queueing_length="6.01" queueing_length_experimental="6.01"/>
        </lanes>
    </data>
    <data timestep="42.00">
        <lanes>
            <lane id="-5333591#7_1" queueing_time="0.00" queueing_length="0.00" queueing_length_experimental="8.91"/>
            <lane id="5342617#14_0" queueing_time="2.00" queueing_length="6.00" queueing_length_experimental="6.00"/>
        </lanes>
    </data>
    <data timestep="43.00">
        <lanes>
            <lane id="480881808#2_0" queueing_time="0.00" queueing_length="0.00" queueing_length_experimental="6.03"/>
            <lane id="5342617#14_0" queueing_time="3.00" queueing_length="6.00" queueing_length_experimental="6.00"/>
        </lanes>
    </data>
    <data timestep="44.00">
        <lanes>
            <lane id="-256385858#4_0" queueing_time="0.00" queueing_length="0.00" queueing_length_experimental="5.00"/>
            <lane id="480881808#2_0" queueing_time="1.00" queueing_length="6.01" queueing_length_experimental="6.01"/>
            <lane id="5342617#14_0" queueing_time="4.00" queueing_length="6.00" queueing_length_experimental="6.00"/>
        </lanes>
    </data>
    <data timestep="45.00">
        <lanes>
            <lane id="480881808#2_0" queueing_time="2.00" queueing_length="6.00" queueing_length_experimental="6.00"/>
            <lane id="5342617#14_0" queueing_time="5.00" queueing_length="6.00" queueing_length_experimental="6.00"/>
        </lanes>
    </data>
    <data timestep="46.00">
        <lanes>
            <lane id="480881808#2_0" queueing_time="3.00" queueing_length="6.00" queueing_length_experimental="6.00"/>
            <lane id="5342617#14_0" queueing_time="6.00" queueing_length="6.00" queueing_length_experimental="6.00"/>
        </lanes>
    </data>
    <data timestep="47.00">
        <lanes>
            <lane id=":6854636438_3_1" queueing_time="0.00" queueing_length="0.00" queueing_length_experimental="5.72"/>
            <lane id="480881808#2_0" queueing_time="4.00" queueing_length="6.00" queueing_length_experimental="6.00"/>
            <lane id="5342617#14_0" queueing_time="7.00" queueing_length="6.00" queueing_length_experimental="6.00"/>
        </lanes>
    </data>
    <data timestep="48.00">
        <lanes>
            <lane id="480881808#2_0" queueing_time="5.00" queueing_length="6.00" queueing_length_experimental="6.00"/>
            <lane id="5342617#14_0" queueing_time="8.00" queueing_length="6.00" queueing_length_experimental="6.00"/>
        </lanes>
    </data>
    <data timestep="49.00">
        <lanes>
            <lane id="480881808#2_0" queueing_time="6.00" queueing_length="6.00" queueing_length_experimental="6.00"/>
            <lane id="5327657#15_0" queueing_time="0.00" queueing_length="0.00" queueing_length_experimental="5.00"/>
            <lane id="5342617#14_0" queueing_time="9.00" queueing_length="6.00" queueing_length_experimental="6.00"/>
        </lanes>
    </data>
    <data timestep="50.00">
        <lanes>
            <lane id="480881808#2_0" queueing_time="7.00" queueing_length="6.00" queueing_length_experimental="6.00"/>
        </lanes>
    </data>
    <data timestep="51.00">
        <lanes>
            <lane id="-655147071#5_0" queueing_time="0.00" queueing_length="0.00" queueing_length_experimental="20.22"/>
        </lanes>
    </data>
    <data timestep="52.00">
        <lanes>
            <lane id="-5343684#0_1" queueing_time="0.00" queueing_length="0.00" queueing_length_experimental="6.16"/>
        </lanes>
    </data>
    <data timestep="53.00">
        <lanes>
            <lane id="-5343684#0_1" queueing_time="0.00" queueing_length="0.00" queueing_length_experimental="6.04"/>
        </lanes>
    </data>
    <data timestep="54.00">
        <lanes>
            <lane id="-40608491#0_0" queueing_time="1.00" queueing_length="6.05" queueing_length_experimental="6.05"/>
            <lane id="-5343684#0_1" queueing_time="1.00" queueing_length="6.02" queueing_length_experimental="6.02"/>
        </lanes>
    </data>
    <data timestep="55.00">
        <lanes>
            <lane id="-40608491#0_0" queueing_time="2.00" queueing_length="6.01" queueing_length_experimental="6.01"/>
            <lane id="-5343684#0_1" queueing_time="2.00" queueing_length="6.01" queueing_length_experimental="6.01"/>
        </lanes>
    </data>
    <data timestep="56.00">
        <lanes>
            <lane id="-40608491#0_0" queueing_time="3.00" queueing_length="6.00" queueing_length_experimental="6.00"/>
            <lane id="-5343684#0_1" queueing_time="3.00" queueing_length="6.00" queueing_length_experimental="6.00"/>
        </lanes>
    </data>
    <data timestep="57.00">
        <lanes>
            <lane id=":5927688629_3_1" queueing_time="0.00" queueing_length="0.00" queueing_length_experimental="5.69"/>
            <lane id="-40608491#0_0" queueing_time="4.00" queueing_length="6.00" queueing_length_experimental="6.00"/>
            <lane id="-5328522#4_0" queueing_time="0.00" queueing_length="0.00" queueing_length_experimental="6.39"/>
            <lane id="-5343684#0_1" queueing_time="4.00" queueing_length="6.00" queueing_length_experimental="6.00"/>
        </lanes>
    </data>
    <data timestep="58.00">
        <lanes>
            <lane id=":5927688629_3_1" queueing_time="0.00" queueing_length="0.00" queueing_length_experimental="5.49"/>
            <lane id="-40608491#0_0" queueing_time="5.00" queueing_length="6.00" queueing_length_experimental="6.00"/>
            <lane id="-5343684#0_1" queueing_time="5.00" queueing_length="6.00" queueing_length_experimental="6.00"/>
        </lanes>
    </data>
    <data timestep="59.00">
        <lanes>
            <lane id=":5927688629_3_1" queueing_time="1.00" queueing_length="5.46" queueing_length_experimental="5.46"/>
            <lane id="-40608491#0_0" queueing_time="6.00" queueing_length="6.00" queueing_length_experimental="6.00"/>
            <lane id="-5343684#0_1" queueing_time="6.00" queueing_length="6.00" queueing_length_experimental="6.00"/>
        </lanes>
    </data>
    <data timestep="60.00">
        <lanes>
            <lane id=":5927688629_3_1" queueing_time="2.00" queueing_length="5.44" queueing_length_experimental="5.44"/>
            <lane id="-40608491#0_0" queueing_time="7.00" queueing_length="6.00" queueing_length_experimental="6.00"/>
            <lane id="-5332453#0_0" queueing_time="0.00" queueing_length="0.00" queueing_length_experimental="6.14"/>
        </lanes>
    </data>
    <data timestep="61.00">
        <lanes>
            <lane id=":5927688629_3_1" queueing_time="3.00" queueing_length="5.44" queueing_length_experimental="5.44"/>
            <lane id="-40608491#0_0" queueing_time="8.00" queueing_length="6.00" queueing_length_experimental="6.00"/>
        </lanes>
    </data>
    <data timestep="62.00">
        <lanes>
            <lane id=":5927688629_3_1" queueing_time="4.00" queueing_length="5.44" queueing_length_experimental="5.44"/>
            <lane id="-40608491#0_0" queueing_time="9.00" queueing_length="6.00" queueing_length_experimental="6.00"/>
        </lanes>
    </data>
    <data timestep="63.00">
        <lanes>
            <lane id=":5927688629_3_1" queueing_time="5.00" queueing_length="5.44" queueing_length_experimental="5.44"/>
            <lane id="-40608491#0_0" queueing_time="10.00" queueing_length="6.00" queueing_length_experimental="6.00"/>
        </lanes>
    </data>
    <data timestep="64.00">
        <lanes>
            <lane id=":5927688629_3_1" queueing_time="6.00" queueing_length="5.44" queueing_length_experimental="5.44"/>
            <lane id="-40608491#0_0" queueing_time="11.00" queueing_length="6.00" queueing_length_experimental="6.00"/>
        </lanes>
    </data>
    <data timestep="65.00">
        <lanes>
            <lane id=":5927688629_3_1" queueing_time="7.00" queueing_length="5.44" queueing_length_experimental="5.44"/>
            <lane id="-40608491#0_0" queueing_time="12.00" queueing_length="6.00" queueing_length_experimental="6.00"/>
            <lane id="-5333591#1_1" queueing_time="0.00" queueing_length="0.00" queueing_length_experimental="7.70"/>
        </lanes>
    </data>
    <data timestep="66.00">
        <lanes>
            <lane id=":5927688629_3_1" queueing_time="8.00" queueing_length="5.44" queueing_length_experimental="5.44"/>
            <lane id="-40608491#0_0" queueing_time="13.00" queueing_length="6.00" queueing_length_experimental="6.00"/>
            <lane id="-5333591#1_1" queueing_time="1.00" queueing_length="7.70" queueing_length_experimental="7.70"/>
            <lane id="5343258#5_0" queueing_time="0.00" queueing_length="0.00" queueing_length_experimental="5.00"/>
        </lanes>
    </data>
    <data timestep="67.00">
        <lanes>
            <lane id=":5927688629_3_1" queueing_time="9.00" queueing_length="5.44" queueing_length_experimental="5.44"/>
            <lane id="-40608491#0_0" queueing_time="14.00" queueing_length="6.00" queueing_length_experimental="6.00"/>
            <lane id="-5333591#1_1" queueing_time="2.00" queueing_length="7.70" queueing_length_experimental="7.70"/>
        </lanes>
    </data>
    <data timestep="68.00">
        <lanes>
            <lane id=":5927688629_3_1" queueing_time="10.00" queueing_length="5.44" queueing_length_experimental="5.44"/>
            <lane id="-40608491#0_0" queueing_time="15.00" queueing_length="6.00" queueing_length_experimental="6.00"/>
            <lane id="-5333591#1_1" queueing_time="3.00" queueing_length="7.70" queueing_length_experimental="7.70"/>
            <lane id="-5333591#8_1" queueing_time="0.00" queueing_length="0.00" queueing_length_experimental="5.00"/>
        </lanes>
    </data>
    <data timestep="69.00">
        <lanes>
            <lane id=":5927688629_3_1" queueing_time="11.00" queueing_length="5.44" queueing_length_experimental="5.44"/>
            <lane id="-5333591#1_1" queueing_time="4.00" queueing_length="7.70" queueing_length_experimental="7.70"/>
        </lanes>
    </data>
    <data timestep="70.00">
        <lanes>
            <lane id=":5927688629_3_1" queueing_time="12.00" queueing_length="5.44" queueing_length_experimental="5.44"/>
            <lane id="-5333591#1_1" queueing_time="5.00" queueing_length="7.70" queueing_length_experimental="7.70"/>
        </lanes>
    </data>
    <data timestep="71.00">
        <lanes>
            <lane id=":5927688629_3_1" queueing_time="13.00" queueing_length="5.44" queueing_length_experimental="5.44"/>
            <lane id="-234065271#3_0" queueing_time="0.00" queueing_length="0.00" queueing_length_experimental="6.11"/>
            <lane id="-5333591#1_1" queueing_time="6.00" queueing_length="7.70" queueing_length_experimental="7.70"/>
        </lanes>
    </data>
    <data timestep="72.00">
        <lanes>
            <lane id=":5927688629_3_1" queueing_time="14.00" queueing_length="5.44" queueing_length_experimental="5.44"/>
            <lane id=":6854636437_0_0" queueing_time="0.00" queueing_length="0.00" queueing_length_experimental="6.19"/>
            <lane id="-234065271#3_0" queueing_time="1.00" queueing_length="6.03" queueing_length_experimental="6.03"/>
            <lane id="-5333591#1_1" queueing_time="7.00" queueing_length="7.70" queueing_length_experimental="7.70"/>
            <lane id="5341921#9_0" queueing_time="0.00" queueing_length="0.00" queueing_length_experimental="6.07"/>
        </lanes>
    </data>
    <data timestep="73.00">
        <lanes>
            <lane id=":5927688629_3_1" queueing_time="15.00" queueing_length="5.44" queueing_length_experimental="5.44"/>
            <lane id=":6854636437_0_0" queueing_time="0.00" queueing_length="0.00" queueing_length_experimental="5.81"/>
            <lane id="-234065271#3_0" queueing_time="2.00" queueing_length="6.01" queueing_length_experimental="6.01"/>
            <lane id="-5333591#1_1" queueing_time="8.00" queueing_length="7.70" queueing_length_experimental="7.70"/>
            <lane id="5341921#9_0" queueing_time="1.00" queueing_length="6.03" queueing_length_experimental="6.03"/>
        </lanes>
    </data>
    <data timestep="74.00">
        <lanes>
            <lane id=":5927688629_3_1" queueing_time="16.00" queueing_length="5.44" queueing_length_experimental="5.44"/>
            <lane id=":6854636437_0_0" queueing_time="1.00" queueing_length="5.80" queueing_length_experimental="5.80"/>
            <lane id="-234065271#3_0" queueing_time="3.00" queueing_length="6.00" queueing_length_experimental="6.00"/>
            <lane id="-5333591#1_1" queueing_time="9.00" queueing_length="7.70" queueing_length_experimental="7.70"/>
            <lane id="5341921#9_0" queueing_time="2.00" queueing_length="6.01" queueing_length_experimental="6.01"/>
        </lanes>
    </data>
    <data timestep="75.00">
        <lanes>
            <lane id=":5927688629_3_1" queueing_time="17.00" queueing_length="5.44" queueing_length_experimental="5.44"/>
            <lane id=":6854636437_0_0" queueing_time="2.00" queueing_length="5.80" queueing_length_experimental="5.80"/>
            <lane id="-5333591#1_1" queueing_time="10.00" queueing_length="7.70" queueing_length_experimental="7.70"/>
            <lane id="5341921#9_0" queueing_time="3.00" queueing_length="6.00" queueing_length_experimental="6.00"/>
        </lanes>
    </data>
    <data timestep="76.00">
        <lanes>
            <lane id=":5927688629_3_1" queueing_time="18.00" queueing_length="5.44" queueing_length_experimental="5.44"/>
            <lane id=":6854636437_0_0" queueing_time="3.00" queueing_length="5.80" queueing_length_experimental="5.80"/>
            <lane id="-5333591#1_1" queueing_time="11.00" queueing_length="7.70" queueing_length_experimental="7.70"/>
            <lane id="5341921#9_0" queueing_time="4.00" queueing_length="6.00" queueing_length_experimental="6.00"/>
        </lanes>
    </data>
    <data timestep="77.00">
        <lanes>
            <lane id=":5927688629_3_1" queueing_time="19.00" queueing_length="5.44" queueing_length_experimental="5.44"/>
            <lane id=":6854636437_0_0" queueing_time="4.00" queueing_length="5.80" queueing_length_experimental="5.80"/>
            <lane id="-5333591#1_1" queueing_time="12.00" queueing_length="7.70" queueing_length_experimental="7.70"/>
            <lane id="5341921#9_0" queueing_time="5.00" queueing_length="6.00" queueing_length_experimental="6.00"/>
        </lanes>
    </data>
    <data timestep="78.00">
        <lanes>
            <lane id=":5927688629_3_1" queueing_time="20.00" queueing_length="5.44" queueing_length_experimental="5.44"/>
            <lane id=":6854636437_0_0" queueing_time="5.00" queueing_length="5.80" queueing_length_experimental="5.80"/>
            <lane id="-5333591#1_1" queueing_time="13.00" queueing_length="7.70" queueing_length_experimental="7.70"/>
            <lane id="5341921#9_0" queueing_time="6.00" queueing_length="6.00" queueing_length_experimental="6.00"/>
        </lanes>
    </data>
    <data timestep="79.00">
        <lanes>
            <lane id=":5927688629_3_1" queueing_time="21.00" queueing_length="5.44" queueing_length_experimental="5.44"/>
            <lane id=":6854636437_0_0" queueing_time="6.00" queueing_length="5.80" queueing_length_experimental="5.80"/>
            <lane id="-5333591#1_1" queueing_time="14.00" queueing_length="7.70" queueing_length_experimental="7.70"/>
            <lane id="5341921#9_0" queueing_time="7.00" queueing_length="6.00" queueing_length_experimental="6.00"/>
            <lane id="729125685#3_0" queueing_time="0.00" queueing_length="0.00" queueing_length_experimental="5.83"/>
        </lanes>
    </data>
    <data timestep="80.00">
        <lanes>
            <lane id=":5927688629_3_1" queueing_time="22.00" queueing_length="5.44" queueing_length_experimental="5.44"/>
            <lane id="-5333591#1_1" queueing_time="15.00" queueing_length="7.70" queueing_length_experimental="7.70"/>
            <lane id="5341921#9_0" queueing_time="8.00" queueing_length="6.00" queueing_length_experimental="6.00"/>
            <lane id="5341921#9_1" queueing_time="0.00" queueing_length="0.00" queueing_length_experimental="6.81"/>
        </lanes>
    </data>
    <data timestep="81.00">
        <lanes>
            <lane id=":5927688629_3_1" queueing_time="23.00" queueing_length="5.44" queueing_length_experimental="5.44"/>
            <lane id="-5333591#1_1" queueing_time="16.00" queueing_length="7.70" queueing_length_experimental="7.70"/>
            <lane id="5341921#9_0" queueing_time="9.00" queueing_length="6.00" queueing_length_experimental="6.00"/>
            <lane id="5341921#9_1" queueing_time="0.00" queueing_length="0.00" queueing_length_experimental="6.38"/>
        </lanes>
    </data>
    <data timestep="82.00">
        <lanes>
            <lane id="-5333591#1_1" queueing_time="17.00" queueing_length="7.70" queueing_length_experimental="7.70"/>
            <lane id="5341921#9_0" queueing_time="10.00" queueing_length="6.00" queueing_length_experimental="6.00"/>
            <lane id="5341921#9_1" queueing_time="0.00" queueing_length="0.00" queueing_length_experimental="6.16"/>
        </lanes>
    </data>
    <data timestep="83.00">
        <lanes>
            <lane id="5341921#9_0" queueing_time="11.00" queueing_length="6.00" queueing_length_experimental="6.00"/>
            <lane id="5341921#9_1" queueing_time="1.00" queueing_length="6.08" queueing_length_experimental="6.08"/>
        </lanes>
    </data>
    <data timestep="84.00">
        <lanes>
            <lane id="256385858#3_0" queueing_time="0.00" queueing_length="0.00" queueing_length_experimental="5.00"/>
            <lane id="5341921#9_0" queueing_time="12.00" queueing_length="6.00" queueing_length_experimental="6.00"/>
            <lane id="5341921#9_1" queueing_time="2.00" queueing_length="6.02" queueing_length_experimental="6.02"/>
        </lanes>
    </data>
    <data timestep="85.00">
        <lanes>
            <lane id="5341921#9_0" queueing_time="13.00" queueing_length="6.00" queueing_length_experimental="6.00"/>
            <lane id="5341921#9_1" queueing_time="3.00" queueing_length="6.00" queueing_length_experimental="6.00"/>
        </lanes>
    </data>
    <data timestep="86.00">
        <lanes>
            <lane id="-731998123#3_0" queueing_time="1.00" queueing_length="5.11" queueing_length_experimental="5.11"/>
            <lane id="5341921#9_0" queueing_time="14.00" queueing_length="6.00" queueing_length_experimental="6.00"/>
            <lane id="5341921#9_1" queueing_time="4.00" queueing_length="6.00" queueing_length_experimental="6.00"/>
        </lanes>
    </data>
    <data timestep="87.00">
        <lanes>
            <lane id="-731998123#3_0" queueing_time="2.00" queueing_length="5.10" queueing_length_experimental="5.10"/>
            <lane id="5341921#9_0" queueing_time="15.00" queueing_length="6.00" queueing_length_experimental="6.00"/>
            <lane id="5341921#9_1" queueing_time="5.00" queueing_length="6.00" queueing_length_experimental="6.00"/>
        </lanes>
    </data>
    <data timestep="88.00">
        <lanes>
            <lane id="-731998123#3_0" queueing_time="3.00" queueing_length="5.10" queueing_length_experimental="5.10"/>
            <lane id="5341921#9_0" queueing_time="16.00" queueing_length="6.00" queueing_length_experimental="6.00"/>
            <lane id="5341921#9_1" queueing_time="6.00" queueing_length="6.00" queueing_length_experimental="6.00"/>
        </lanes>
    </data>
    <data timestep="89.00">
        <lanes>